# vtk DataFile Version 2.0
Niederschlag
ASCII
DATASET RECTILINEAR_GRID
DIMENSIONS 192 96 1
X_COORDINATES 192 float
-180 -178.125 -176.25 -174.375 -172.5 -170.625 -168.75 -166.875 -165 -163.125 -161.25 -159.375 -157.5 -155.625 -153.75 -151.875 -150 -148.125 -146.25 -144.375 -142.5 -140.625 -138.75 -136.875 -135 -133.125 -131.25 -129.375 -127.5 -125.625 -123.75 -121.875 -120 -118.125 -116.25 -114.375 -112.5 -110.625 -108.75 -106.875 -105 -103.125 -101.25 -99.375 -97.5 -95.625 -93.75 -91.875 -90 -88.125 -86.25 -84.375 -82.5 -80.625 -78.75 -76.875 -75 -73.125 -71.25 -69.375 -67.5 -65.625 -63.75 -61.875 -60 -58.125 -56.25 -54.375 -52.5 -50.625 -48.75 -46.875 -45 -43.125 -41.25 -39.375 -37.5 -35.625 -33.75 -31.875 -30 -28.125 -26.25 -24.375 -22.5 -20.625 -18.75 -16.875 -15 -13.125 -11.25 -9.375 -7.5 -5.625 -3.75 -1.875 0 1.875 3.75 5.625 7.5 9.375 11.25 13.125 15 16.875 18.75 20.625 22.5 24.375 26.25 28.125 30 31.875 33.75 35.625 37.5 39.375 41.25 43.125 45 46.875 48.75 50.625 52.5 54.375 56.25 58.125 60 61.875 63.75 65.625 67.5 69.375 71.25 73.125 75 76.875 78.75 80.625 82.5 84.375 86.25 88.125 90 91.875 93.75 95.625 97.5 99.375 101.25 103.125 105 106.875 108.75 110.625 112.5 114.375 116.25 118.125 120 121.875 123.75 125.625 127.5 129.375 131.25 133.125 135 136.875 138.75 140.625 142.5 144.375 146.25 148.125 150 151.875 153.75 155.625 157.5 159.375 161.25 163.125 165 166.875 168.75 170.625 172.5 174.375 176.25 178.125
Y_COORDINATES 96 float
-88.57216851400727 -86.72253095466814 -84.86197029204237 -82.99894164283755 -81.13497683767741 -79.27055903485967 -77.4058880820788 -75.54106145287895 -73.67613231320912 -71.81113211427447 -69.94608064698343 -68.08099098565125 -66.2158721139987 -64.35073040887207 -62.48557052203639 -60.62039592682648 -58.75520926937993 -56.89001260135711 -55.02480753831165 -53.15959537001968 -51.29437713895115 -49.42915369712305 -47.56392574797868 -45.69869387770179 -43.83345857895126 -41.96822026907537 -40.1029793042494 -38.23773599056483 -36.37249059281224 -34.50724334150105 -32.64199443851768 -30.77674406172325 -28.91149236871775 -27.04623949994481 -25.18098558127059 -23.31573072614093 -21.45047503739819 -19.58521860882232 -17.71996152644742 -15.85470386969488 -13.98944571235667 -12.12418712345578 -10.25892816800639 -8.393668907692385 -6.528409401479982 -4.663149706177889 -2.79788987695673 -0.9326299678380044 0.9326299678380044 2.79788987695673 4.663149706177889 6.528409401479982 8.393668907692385 10.25892816800639 12.12418712345578 13.98944571235667 15.85470386969488 17.71996152644742 19.58521860882232 21.45047503739819 23.31573072614093 25.18098558127059 27.04623949994481 28.91149236871775 30.77674406172325 32.64199443851768 34.50724334150105 36.37249059281224 38.23773599056483 40.1029793042494 41.96822026907537 43.83345857895126 45.69869387770179 47.56392574797868 49.42915369712305 51.29437713895115 53.15959537001968 55.02480753831165 56.89001260135711 58.75520926937993 60.62039592682648 62.48557052203639 64.35073040887207 66.2158721139987 68.08099098565125 69.94608064698343 71.81113211427447 73.67613231320912 75.54106145287895 77.4058880820788 79.27055903485967 81.13497683767741 82.99894164283755 84.86197029204237 86.72253095466814 88.57216851400727
Z_COORDINATES 1 float
0.
POINT_DATA 18432
SCALARS scalars float
LOOKUP_TABLE default
1.860316842794418e-07
1.862645149230957e-07
1.863809302449226e-07
1.866137608885765e-07
1.868465915322304e-07
1.870794221758842e-07
1.873122528195381e-07
1.876614987850189e-07
1.878943294286728e-07
1.881271600723267e-07
1.883599907159805e-07
1.885928213596344e-07
1.888256520032883e-07
1.890584826469421e-07
1.894077286124229e-07
1.896405592560768e-07
1.898733898997307e-07
1.901062205433846e-07
1.903390511870384e-07
1.905718818306923e-07
1.908047124743462e-07
1.91037543118e-07
1.912703737616539e-07
1.915032044053078e-07
1.917360350489616e-07
1.919688656926155e-07
1.922016963362694e-07
1.924345269799232e-07
1.926673576235771e-07
1.92900188267231e-07
1.931330189108849e-07
1.933658495545387e-07
1.935986801981926e-07
1.938315108418465e-07
1.941807568073273e-07
1.944135874509811e-07
1.94646418094635e-07
1.948792487382889e-07
1.951120793819427e-07
1.953449100255966e-07
1.955777406692505e-07
1.958105713129044e-07
1.961598172783852e-07
1.96392647922039e-07
1.966254785656929e-07
1.968583092093468e-07
1.970911398530006e-07
1.973239704966545e-07
1.975568011403084e-07
1.979060471057892e-07
1.981388777494431e-07
1.983717083930969e-07
1.986045390367508e-07
1.987209543585777e-07
1.989537850022316e-07
1.991866156458855e-07
1.994194462895393e-07
1.995358616113663e-07
1.997686922550201e-07
1.998851075768471e-07
2.001179382205009e-07
2.002343535423279e-07
2.003507688641548e-07
2.004671841859818e-07
2.005835995078087e-07
2.051237970590591e-07
2.052402123808861e-07
2.059387043118477e-07
2.065207809209824e-07
2.07219272851944e-07
2.078013494610786e-07
2.083834260702133e-07
2.088490873575211e-07
2.093147486448288e-07
2.097804099321365e-07
2.101296558976173e-07
2.104789018630981e-07
2.108281478285789e-07
2.110609784722328e-07
2.114102244377136e-07
2.116430550813675e-07
2.118758857250214e-07
2.119923010468483e-07
2.122251316905022e-07
2.123415470123291e-07
2.12457962334156e-07
2.12457962334156e-07
2.12574377655983e-07
2.126907929778099e-07
2.128072082996368e-07
2.130400389432907e-07
2.131564542651176e-07
2.132728695869446e-07
2.132728695869446e-07
2.132728695869446e-07
2.130400389432907e-07
2.128072082996368e-07
2.12457962334156e-07
2.121087163686752e-07
2.116430550813675e-07
2.110609784722328e-07
2.103624865412712e-07
2.096639946103096e-07
2.088490873575211e-07
2.079177647829056e-07
2.068700268864632e-07
2.055894583463669e-07
2.041924744844437e-07
2.026790753006935e-07
2.007000148296356e-07
3.690365701913834e-08
3.748573362827301e-08
3.783497959375381e-08
3.806781023740768e-08
3.806781023740768e-08
1.945300027728081e-07
1.942971721291542e-07
1.940643414855003e-07
1.938315108418465e-07
1.935986801981926e-07
1.933658495545387e-07
1.931330189108849e-07
1.92900188267231e-07
1.887092366814613e-07
1.930166035890579e-07
1.927837729454041e-07
1.925509423017502e-07
1.923181116580963e-07
1.919688656926155e-07
1.917360350489616e-07
1.915032044053078e-07
1.912703737616539e-07
1.91037543118e-07
1.908047124743462e-07
1.905718818306923e-07
1.904554665088654e-07
1.902226358652115e-07
1.899898052215576e-07
1.898733898997307e-07
1.896405592560768e-07
1.895241439342499e-07
1.89291313290596e-07
1.891748979687691e-07
1.889420673251152e-07
1.888256520032883e-07
1.885928213596344e-07
1.884764060378075e-07
1.882435753941536e-07
1.881271600723267e-07
1.878943294286728e-07
1.877779141068459e-07
1.87545083463192e-07
1.873122528195381e-07
1.871958374977112e-07
1.869630068540573e-07
1.868465915322304e-07
1.866137608885765e-07
1.863809302449226e-07
1.862645149230957e-07
1.860316842794418e-07
1.859152689576149e-07
1.85798853635788e-07
1.855660229921341e-07
1.854496076703072e-07
1.852167770266533e-07
1.851003617048264e-07
1.849839463829994e-07
1.848675310611725e-07
1.847511157393456e-07
1.846347004175186e-07
1.845182850956917e-07
1.845182850956917e-07
1.844018697738647e-07
1.842854544520378e-07
1.842854544520378e-07
1.842854544520378e-07
1.842854544520378e-07
1.842854544520378e-07
1.842854544520378e-07
1.842854544520378e-07
1.844018697738647e-07
1.844018697738647e-07
1.845182850956917e-07
1.846347004175186e-07
1.846347004175186e-07
1.848675310611725e-07
1.849839463829994e-07
1.851003617048264e-07
1.852167770266533e-07
1.854496076703072e-07
1.855660229921341e-07
1.85798853635788e-07
8.731149137020111e-09
1.594889909029007e-08
2.200249582529068e-08
2.235174179077148e-08
2.351589500904083e-08
2.677552402019501e-08
3.003515303134918e-08
2.526212483644485e-08
2.025626599788666e-08
1.688022166490555e-08
1.466833055019379e-08
8.149072527885437e-09
2.677552402019501e-09
2.561137080192566e-09
2.328306436538696e-09
2.444721758365631e-09
2.677552402019501e-09
2.677552402019501e-09
2.793967723846436e-09
2.561137080192566e-09
2.561137080192566e-09
2.793967723846436e-09
2.677552402019501e-09
3.725290298461914e-09
4.074536263942719e-09
4.190951585769653e-09
4.423782229423523e-09
4.656612873077393e-09
4.773028194904327e-09
3.608874976634979e-09
3.14321368932724e-09
3.492459654808044e-09
3.841705620288849e-09
4.307366907596588e-09
4.540197551250458e-09
4.773028194904327e-09
4.889443516731262e-09
5.122274160385132e-09
5.355104804039001e-09
5.587935447692871e-09
6.05359673500061e-09
7.334165275096893e-09
7.566995918750763e-09
7.683411240577698e-09
7.799826562404633e-09
5.355104804039001e-09
6.635673344135284e-09
8.149072527885437e-09
8.149072527885437e-09
8.149072527885437e-09
8.149072527885437e-09
8.032657206058502e-09
7.916241884231567e-09
7.799826562404633e-09
7.683411240577698e-09
7.450580596923828e-09
7.217749953269958e-09
6.984919309616089e-09
6.752088665962219e-09
6.402842700481415e-09
6.05359673500061e-09
5.704350769519806e-09
5.355104804039001e-09
4.889443516731262e-09
4.540197551250458e-09
3.958120942115784e-09
3.725290298461914e-09
3.259629011154175e-09
2.793967723846436e-09
2.211891114711761e-09
5.820766091346741e-10
1.746229827404022e-09
5.820766091346741e-10
1.164153218269348e-10
1.164153218269348e-10
6.984919309616089e-10
5.820766091346741e-10
3.492459654808044e-10
2.328306436538696e-10
1.164153218269348e-10
1.164153218269348e-10
1.164153218269348e-10
1.471389700789938e-18
1.471389700789938e-18
1.471389700789938e-18
1.471389700789938e-18
1.471389700789938e-18
1.471389700789938e-18
1.471389700789938e-18
1.471389700789938e-18
1.471389700789938e-18
1.471389700789938e-18
1.164153218269348e-10
1.164153218269348e-10
1.979060471057892e-09
1.385342329740524e-08
4.307366907596588e-08
3.539025783538818e-08
4.831235855817795e-08
4.540197551250458e-08
1.0710209608078e-08
1.047737896442413e-09
4.190951585769653e-09
6.996560841798782e-08
7.566995918750763e-08
7.520429790019989e-08
7.450580596923828e-08
7.415656000375748e-08
7.019843906164169e-08
7.636845111846924e-08
7.543712854385376e-08
8.16071406006813e-08
9.16188582777977e-08
9.743962436914444e-08
9.918585419654846e-08
1.133885234594345e-07
1.211883500218391e-07
1.133885234594345e-07
1.534353941679001e-07
1.204898580908775e-07
7.182825356721878e-08
1.688022166490555e-08
8.498318493366241e-09
1.012813299894333e-08
5.820766091346741e-09
4.152534529566765e-07
5.73345459997654e-07
2.705492079257965e-07
2.603046596050262e-07
2.223532646894455e-07
1.288717612624168e-07
1.479638740420341e-07
1.301523298025131e-07
1.084990799427032e-07
8.917413651943207e-08
5.657784640789032e-08
4.074536263942719e-08
2.572778612375259e-08
1.199077814817429e-08
2.793967723846436e-09
1.164153218269348e-10
4.753237590193748e-07
6.984919309616089e-08
1.164153218269348e-10
1.471389700789938e-18
1.471389700789938e-18
1.471389700789938e-18
1.471389700789938e-18
1.471389700789938e-18
1.471389700789938e-18
1.471389700789938e-18
1.471389700789938e-18
1.471389700789938e-18
1.471389700789938e-18
1.471389700789938e-18
1.471389700789938e-18
1.471389700789938e-18
1.471389700789938e-18
1.471389700789938e-18
1.471389700789938e-18
1.164153218269348e-10
1.676380634307861e-08
4.656612873077393e-10
5.820766091346741e-09
2.526212483644485e-08
1.706648617982864e-07
4.984904080629349e-07
2.701999619603157e-07
5.452893674373627e-07
8.909264579415321e-07
1.087668351829052e-06
3.224704414606094e-08
3.853347152471542e-08
2.887099981307983e-08
1.222360879182816e-07
2.293381839990616e-08
5.925539880990982e-08
1.782318577170372e-07
6.58910721540451e-08
5.937181413173676e-09
6.705522537231445e-08
9.313225746154785e-09
1.257285475730896e-08
1.979060471057892e-09
1.280568540096283e-09
1.979060471057892e-09
1.164153218269348e-10
2.328306436538696e-10
1.164153218269348e-10
2.328306436538696e-10
9.313225746154785e-10
4.190951585769653e-09
4.700804129242897e-05
5.401787348091602e-05
5.592301022261381e-05
5.465315189212561e-05
6.469897925853729e-05
6.843346636742353e-05
3.567885141819715e-05
3.270839806646109e-05
2.439820673316717e-05
2.074521034955978e-07
7.450580596923828e-09
2.328306436538696e-10
1.471389700789938e-18
1.471389700789938e-18
1.471389700789938e-18
1.471389700789938e-18
1.471389700789938e-18
1.471389700789938e-18
1.471389700789938e-18
1.471389700789938e-18
1.471389700789938e-18
1.471389700789938e-18
1.471389700789938e-18
1.471389700789938e-18
1.471389700789938e-18
1.471389700789938e-18
1.471389700789938e-18
1.471389700789938e-18
1.471389700789938e-18
1.471389700789938e-18
1.471389700789938e-18
1.471389700789938e-18
1.471389700789938e-18
1.471389700789938e-18
1.471389700789938e-18
1.471389700789938e-18
1.471389700789938e-18
1.471389700789938e-18
1.471389700789938e-18
1.471389700789938e-18
1.471389700789938e-18
1.471389700789938e-18
1.471389700789938e-18
1.471389700789938e-18
1.471389700789938e-18
1.471389700789938e-18
1.471389700789938e-18
1.471389700789938e-18
1.471389700789938e-18
1.471389700789938e-18
1.471389700789938e-18
1.471389700789938e-18
1.471389700789938e-18
1.471389700789938e-18
1.471389700789938e-18
1.471389700789938e-18
1.471389700789938e-18
1.471389700789938e-18
1.471389700789938e-18
1.471389700789938e-18
1.471389700789938e-18
1.471389700789938e-18
1.471389700789938e-18
1.471389700789938e-18
1.471389700789938e-18
1.471389700789938e-18
1.471389700789938e-18
1.471389700789938e-18
1.471389700789938e-18
1.471389700789938e-18
1.471389700789938e-18
1.471389700789938e-18
1.471389700789938e-18
1.471389700789938e-18
1.471389700789938e-18
1.471389700789938e-18
1.471389700789938e-18
1.471389700789938e-18
1.471389700789938e-18
1.471389700789938e-18
1.471389700789938e-18
1.471389700789938e-18
1.471389700789938e-18
1.471389700789938e-18
1.471389700789938e-18
1.471389700789938e-18
1.471389700789938e-18
1.471389700789938e-18
1.471389700789938e-18
6.984919309616089e-10
2.561137080192566e-09
5.587935447692871e-09
1.199077814817429e-08
2.281740307807922e-08
4.819594323635101e-08
1.940643414855003e-07
9.41101461648941e-07
9.621726348996162e-07
7.324852049350739e-07
7.151393219828606e-07
2.526212483644485e-08
5.704350769519806e-09
2.91038304567337e-09
3.492459654808044e-10
1.746229827404022e-09
1.164153218269348e-10
1.471389700789938e-18
1.471389700789938e-18
1.408625394105911e-08
3.0535738915205e-07
4.407484084367752e-07
3.009336069226265e-07
2.604210749268532e-07
2.476153895258904e-07
2.406304702162743e-07
2.332963049411774e-07
2.646120265126228e-07
2.604210749268532e-07
9.172363206744194e-07
1.216190867125988e-06
9.619398042559624e-07
8.033821359276772e-07
6.492482498288155e-07
4.880130290985107e-07
2.849847078323364e-07
2.399319782853127e-07
2.173474058508873e-07
1.657754182815552e-07
2.012820914387703e-07
2.263113856315613e-07
4.600733518600464e-07
5.005858838558197e-07
3.430759534239769e-07
3.83937731385231e-07
4.003522917628288e-07
3.169989213347435e-07
2.789311110973358e-07
2.491287887096405e-07
2.277083694934845e-07
2.090819180011749e-07
1.868465915322304e-07
1.50059349834919e-07
1.66008248925209e-07
1.711305230855942e-07
1.958105713129044e-07
6.263144314289093e-08
1.757871359586716e-08
1.175794750452042e-08
1.152511686086655e-08
9.546056389808655e-09
5.238689482212067e-09
8.149072527885437e-10
1.471389700789938e-18
1.471389700789938e-18
1.471389700789938e-18
1.471389700789938e-18
1.471389700789938e-18
1.187436282634735e-08
6.01867213845253e-08
8.812639862298965e-08
1.093139871954918e-07
1.472653821110725e-07
2.584420144557953e-07
5.568144842982292e-07
9.603099897503853e-07
8.739298209547997e-07
1.581152901053429e-06
1.533306203782558e-06
1.771841198205948e-06
1.751002855598927e-06
1.987325958907604e-06
2.057175152003765e-06
4.261615686118603e-06
2.035172656178474e-06
8.858158253133297e-06
3.676395863294601e-06
1.094676554203033e-05
1.237459946423769e-05
7.013790309429169e-06
1.686392351984978e-06
1.216039527207613e-05
7.781898602843285e-06
1.843995414674282e-05
7.813679985702038e-06
1.848477404564619e-05
1.845834776759148e-05
1.832249108701944e-05
2.614851109683514e-05
2.039608079940081e-05
2.823641989380121e-05
3.216147888451815e-05
4.01131110265851e-05
7.131369784474373e-05
7.134920451790094e-05
7.130810990929604e-05
7.188634481281042e-05
7.467612158507109e-05
7.963809184730053e-05
7.755262777209282e-05
7.048971019685268e-05
5.934655200690031e-05
4.294712562114e-05
2.471532206982374e-05
7.716822437942028e-06
2.887099981307983e-08
1.629814505577087e-09
1.513399183750153e-09
1.280568540096283e-09
6.984919309616089e-10
3.492459654808044e-10
1.164153218269348e-10
1.164153218269348e-10
1.471389700789938e-18
1.471389700789938e-18
1.471389700789938e-18
1.164153218269348e-10
1.164153218269348e-10
1.471389700789938e-18
1.471389700789938e-18
1.471389700789938e-18
1.471389700789938e-18
1.471389700789938e-18
1.471389700789938e-18
1.471389700789938e-18
1.471389700789938e-18
1.471389700789938e-18
1.471389700789938e-18
1.471389700789938e-18
1.471389700789938e-18
1.471389700789938e-18
1.471389700789938e-18
1.471389700789938e-18
1.471389700789938e-18
1.471389700789938e-18
1.471389700789938e-18
1.471389700789938e-18
1.471389700789938e-18
1.471389700789938e-18
1.471389700789938e-18
1.471389700789938e-18
1.471389700789938e-18
1.471389700789938e-18
1.471389700789938e-18
1.471389700789938e-18
1.471389700789938e-18
1.471389700789938e-18
1.471389700789938e-18
1.471389700789938e-18
1.471389700789938e-18
1.471389700789938e-18
1.471389700789938e-18
1.471389700789938e-18
1.471389700789938e-18
1.471389700789938e-18
1.471389700789938e-18
1.471389700789938e-18
1.471389700789938e-18
1.471389700789938e-18
1.471389700789938e-18
1.471389700789938e-18
1.471389700789938e-18
1.471389700789938e-18
1.471389700789938e-18
1.471389700789938e-18
1.471389700789938e-18
1.471389700789938e-18
1.471389700789938e-18
1.471389700789938e-18
1.471389700789938e-18
1.471389700789938e-18
1.471389700789938e-18
1.471389700789938e-18
1.471389700789938e-18
1.471389700789938e-18
1.471389700789938e-18
1.471389700789938e-18
1.471389700789938e-18
1.471389700789938e-18
1.471389700789938e-18
1.471389700789938e-18
1.164153218269348e-10
3.37604433298111e-09
1.001171767711639e-08
1.955777406692505e-08
4.097819328308105e-08
1.078005880117416e-07
2.061715349555016e-07
5.044275894761086e-07
7.187481969594955e-07
7.922062650322914e-07
7.685739547014236e-07
5.719484761357307e-07
2.877786755561829e-07
1.610023900866508e-07
9.092036634683609e-08
5.005858838558197e-08
3.080349415540695e-07
1.151347532868385e-07
7.543712854385376e-08
6.495974957942963e-08
6.356276571750641e-08
6.55418261885643e-08
4.260800778865814e-08
5.005858838558197e-09
1.471389700789938e-18
1.471389700789938e-18
1.471389700789938e-18
1.471389700789938e-18
3.958120942115784e-09
1.30385160446167e-07
1.885928213596344e-07
2.192100510001183e-07
2.343440428376198e-07
1.356354914605618e-06
1.365668140351772e-06
7.131602615118027e-07
4.135072231292725e-07
3.903405740857124e-07
3.726454451680183e-07
3.702007234096527e-07
3.67872416973114e-07
3.46451997756958e-07
3.023305907845497e-07
2.520391717553139e-07
1.96509063243866e-07
1.315493136644363e-07
1.109438017010689e-07
1.062871888279915e-07
9.243376553058624e-08
1.149019226431847e-07
1.793960109353065e-07
1.663574948906898e-07
1.506414264440536e-07
1.647276803851128e-07
1.726439222693443e-07
1.876614987850189e-07
1.745065674185753e-07
2.323649823665619e-07
2.252636477351189e-07
1.491280272603035e-07
1.246808096766472e-07
9.546056389808655e-08
8.323695510625839e-08
9.208451956510544e-08
1.00000761449337e-07
9.953510016202927e-08
8.975621312856674e-08
6.647314876317978e-08
4.004687070846558e-08
3.469176590442657e-08
3.026798367500305e-08
2.712476998567581e-08
4.831235855817795e-08
9.115319699048996e-08
1.579755917191505e-07
4.136236384510994e-07
6.175832822918892e-07
9.547220543026924e-07
1.077190972864628e-06
7.092021405696869e-07
9.238719940185547e-07
1.008273102343082e-06
4.188623279333115e-07
3.760214895009995e-08
4.330649971961975e-08
1.641456037759781e-08
2.048909664154053e-08
2.619926817715168e-06
2.394174225628376e-05
2.962769940495491e-07
3.37907113134861e-06
1.761701423674822e-05
1.758302096277475e-05
2.981862053275108e-05
3.341666888445616e-05
3.172329161316156e-05
4.138052463531494e-05
5.027663428336382e-05
4.869536496698856e-05
6.023235619068146e-05
5.814642645418644e-05
6.167427636682987e-05
6.977713201195002e-05
7.069471757858992e-05
2.127955667674541e-05
2.169888466596603e-05
2.213905099779367e-05
2.250191755592823e-05
2.331205178052187e-05
2.370786387473345e-05
2.352707087993622e-05
2.800708170980215e-05
4.665378946810961e-05
4.563911352306604e-05
2.714013680815697e-05
5.312496796250343e-06
3.229477442800999e-06
2.213753759860992e-06
1.542852260172367e-06
1.38056930154562e-06
1.293723471462727e-06
6.677582859992981e-07
3.434251993894577e-07
2.316664904356003e-08
1.42841599881649e-07
2.472661435604095e-07
2.755550667643547e-07
4.764879122376442e-07
3.596069291234016e-07
5.774199962615967e-08
4.656612873077393e-10
5.820766091346741e-10
6.984919309616089e-10
9.313225746154785e-10
3.259629011154175e-09
2.677552402019501e-09
1.513399183750153e-09
9.313225746154785e-10
2.328306436538696e-10
1.471389700789938e-18
1.471389700789938e-18
1.471389700789938e-18
1.641456037759781e-08
4.016328603029251e-08
4.970934242010117e-08
3.958120942115784e-08
1.42958015203476e-07
1.925509423017502e-07
1.46450474858284e-07
1.53668224811554e-08
1.471389700789938e-18
1.471389700789938e-18
1.471389700789938e-18
1.471389700789938e-18
1.471389700789938e-18
1.471389700789938e-18
1.471389700789938e-18
1.471389700789938e-18
1.471389700789938e-18
1.471389700789938e-18
1.471389700789938e-18
1.471389700789938e-18
1.471389700789938e-18
1.471389700789938e-18
1.471389700789938e-18
1.471389700789938e-18
1.471389700789938e-18
1.471389700789938e-18
1.471389700789938e-18
1.471389700789938e-18
1.471389700789938e-18
1.471389700789938e-18
1.471389700789938e-18
1.471389700789938e-18
1.471389700789938e-18
1.471389700789938e-18
1.471389700789938e-18
1.471389700789938e-18
1.471389700789938e-18
1.471389700789938e-18
1.471389700789938e-18
1.471389700789938e-18
1.471389700789938e-18
1.471389700789938e-18
1.471389700789938e-18
1.471389700789938e-18
1.471389700789938e-18
1.471389700789938e-18
1.471389700789938e-18
1.471389700789938e-18
1.471389700789938e-18
1.471389700789938e-18
1.471389700789938e-18
1.471389700789938e-18
1.471389700789938e-18
1.471389700789938e-18
1.471389700789938e-18
1.471389700789938e-18
4.656612873077393e-10
3.492459654808044e-09
7.334165275096893e-09
1.012813299894333e-08
1.164153218269348e-08
1.234002411365509e-08
1.164153218269348e-08
8.62637534737587e-08
6.7870132625103e-08
4.470348358154297e-08
1.69733539223671e-06
7.037073373794556e-06
7.882132194936275e-06
6.997957825660706e-06
7.288297638297081e-06
8.440576493740082e-06
4.514469765126705e-06
6.644986569881439e-07
2.188608050346375e-08
4.656612873077393e-09
3.923196345567703e-08
1.979060471057892e-09
1.373700797557831e-07
1.260777935385704e-07
1.689186319708824e-07
1.257634721696377e-06
1.078937202692032e-06
7.799826562404633e-07
6.941845640540123e-07
5.170004442334175e-07
4.572793841362e-07
4.174653440713882e-07
4.386529326438904e-07
3.763707354664803e-07
2.42842361330986e-07
1.12457200884819e-07
8.114147931337357e-08
5.983747541904449e-08
4.726462066173553e-08
4.016328603029251e-08
4.435423761606216e-08
2.096639946103096e-07
3.551831468939781e-07
3.756722435355186e-07
3.216555342078209e-07
2.906890586018562e-07
3.167660906910896e-07
2.175802364945412e-07
2.760207280516624e-07
4.582107067108154e-07
2.240994945168495e-07
9.685754776000977e-08
4.225876182317734e-08
2.933666110038757e-08
5.122274160385132e-09
2.095475792884827e-09
1.746229827404022e-09
1.746229827404022e-09
1.746229827404022e-09
1.629814505577087e-09
1.396983861923218e-09
8.149072527885437e-10
2.328306436538696e-10
3.492459654808044e-10
3.492459654808044e-10
3.492459654808044e-10
5.820766091346741e-10
1.164153218269348e-09
1.746229827404022e-09
2.91038304567337e-09
2.03610397875309e-07
2.033775672316551e-07
2.222368493676186e-07
2.559972926974297e-07
3.251479938626289e-07
9.119976311922073e-07
1.040415372699499e-05
1.840433105826378e-05
2.118758857250214e-08
9.988434612751007e-08
1.678173430263996e-05
7.129157893359661e-06
1.455575693398714e-05
2.46779527515173e-05
7.21542164683342e-07
2.200610470026731e-05
2.702954225242138e-05
2.078723628073931e-05
2.318609040230513e-05
2.522789873182774e-05
2.351624425500631e-05
2.072995994240046e-05
1.954648178070784e-05
1.984182745218277e-05
1.965125557035208e-05
2.053915522992611e-05
2.057943493127823e-05
2.096709795296192e-05
3.003515303134918e-08
2.025626599788666e-08
1.280568540096283e-09
3.841705620288849e-09
4.656612873077393e-10
1.164153218269348e-10
1.164153218269348e-10
1.164153218269348e-10
2.211891114711761e-09
1.164153218269348e-10
1.990702003240585e-08
1.954613253474236e-07
1.148437149822712e-06
2.64681875705719e-06
4.378613084554672e-06
2.410146407783031e-06
6.798654794692993e-07
3.015156835317612e-08
3.492459654808044e-08
1.281732693314552e-07
1.513399183750153e-09
3.10828909277916e-08
3.632158041000366e-08
2.584420144557953e-08
3.166496753692627e-08
6.007030606269836e-08
1.045409590005875e-07
1.435400918126106e-07
1.866137608885765e-07
2.456363290548325e-07
1.041451469063759e-06
9.391224011778831e-07
6.575137376785278e-07
6.320187821984291e-07
2.894084900617599e-07
1.280568540096283e-09
1.471389700789938e-18
1.471389700789938e-18
2.328306436538696e-10
8.149072527885437e-10
8.149072527885437e-10
5.820766091346741e-10
1.746229827404022e-09
2.91038304567337e-09
3.14321368932724e-09
2.328306436538696e-10
1.471389700789938e-18
1.471389700789938e-18
1.471389700789938e-18
1.471389700789938e-18
1.471389700789938e-18
1.471389700789938e-18
1.471389700789938e-18
1.471389700789938e-18
1.471389700789938e-18
1.471389700789938e-18
1.471389700789938e-18
1.471389700789938e-18
1.471389700789938e-18
1.471389700789938e-18
1.471389700789938e-18
1.471389700789938e-18
1.471389700789938e-18
1.471389700789938e-18
1.471389700789938e-18
1.471389700789938e-18
1.471389700789938e-18
1.164153218269348e-10
1.164153218269348e-10
1.471389700789938e-18
1.471389700789938e-18
1.471389700789938e-18
1.471389700789938e-18
1.471389700789938e-18
1.471389700789938e-18
1.471389700789938e-18
1.471389700789938e-18
1.471389700789938e-18
1.471389700789938e-18
1.471389700789938e-18
1.471389700789938e-18
1.471389700789938e-18
1.471389700789938e-18
1.471389700789938e-18
5.133915692567825e-08
3.568129613995552e-07
4.332978278398514e-07
3.370223566889763e-07
2.465676516294479e-07
1.802109181880951e-07
9.604264050722122e-08
9.93022695183754e-08
1.784646883606911e-07
7.124617695808411e-08
1.0710209608078e-08
6.752088665962219e-09
1.001171767711639e-08
3.154855221509933e-08
2.398155629634857e-08
1.117587089538574e-08
3.14321368932724e-08
2.099131233990192e-05
1.49216502904892e-05
1.103430986404419e-05
9.022071026265621e-06
5.970010533928871e-06
9.579001925885677e-06
2.914108335971832e-06
1.595006324350834e-06
4.745554178953171e-06
8.150702342391014e-06
6.349291652441025e-06
2.271612174808979e-06
7.103662937879562e-07
3.186287358403206e-07
2.433080226182938e-07
2.029119059443474e-07
1.782318577170372e-07
8.98831058293581e-06
2.165441401302814e-06
1.59023329615593e-07
5.855690687894821e-08
9.114155545830727e-07
1.74972228705883e-07
5.803303793072701e-07
1.168809831142426e-07
1.129228621721268e-08
1.746229827404022e-09
9.313225746154785e-10
3.026798367500305e-09
2.619344741106033e-08
1.623993739485741e-07
1.48196704685688e-07
3.504101186990738e-08
6.472691893577576e-08
1.369975507259369e-06
1.473003067076206e-06
1.004664227366447e-07
3.843801096081734e-06
3.188848495483398e-06
2.69734300673008e-06
8.021015673875809e-07
2.931803464889526e-06
2.246582880616188e-06
4.591420292854309e-07
5.890615284442902e-08
1.316657289862633e-07
1.601874828338623e-07
8.032657206058502e-08
3.073364496231079e-08
1.455191522836685e-08
5.005858838558197e-09
6.984919309616089e-10
1.471389700789938e-18
1.471389700789938e-18
1.471389700789938e-18
1.471389700789938e-18
1.471389700789938e-18
1.471389700789938e-18
1.471389700789938e-18
1.471389700789938e-18
1.471389700789938e-18
1.471389700789938e-18
1.896405592560768e-07
8.428469300270081e-08
7.078051567077637e-08
6.984919309616089e-07
8.075730875134468e-07
1.173815689980984e-06
1.410720869898796e-06
1.04785431176424e-06
8.216593414545059e-07
1.245643943548203e-06
3.42389103025198e-06
2.685817889869213e-06
2.64379195868969e-06
3.784894943237305e-06
2.515967935323715e-06
4.942412488162518e-06
3.622611984610558e-06
5.133799277245998e-06
2.180226147174835e-06
5.095032975077629e-06
2.851593308150768e-06
4.537985660135746e-06
4.190951585769653e-08
2.354616299271584e-06
3.269175067543983e-06
1.569278538227081e-06
5.724141374230385e-07
2.461019903421402e-07
8.172355592250824e-08
1.164153218269348e-10
5.820766091346741e-10
7.124617695808411e-08
7.234048098325729e-07
1.184991560876369e-06
1.265085302293301e-06
1.317355781793594e-06
1.706299372017384e-06
2.105138264596462e-06
2.568005584180355e-06
2.79571395367384e-06
3.499211743474007e-06
3.83064616471529e-06
6.996095180511475e-06
3.746827132999897e-06
1.221080310642719e-06
1.471389700789938e-18
1.471389700789938e-18
1.471389700789938e-18
1.471389700789938e-18
1.471389700789938e-18
1.471389700789938e-18
2.095475792884827e-09
4.995381459593773e-07
9.187497198581696e-07
9.417999535799026e-07
9.319046512246132e-07
9.029172360897064e-07
8.41100700199604e-07
6.222398951649666e-07
7.884809747338295e-07
4.319008439779282e-07
1.396983861923218e-09
8.149072527885437e-10
6.984919309616089e-10
1.471389700789938e-18
1.471389700789938e-18
1.471389700789938e-18
1.471389700789938e-18
1.471389700789938e-18
1.471389700789938e-18
1.471389700789938e-18
1.471389700789938e-18
1.471389700789938e-18
1.471389700789938e-18
1.471389700789938e-18
1.471389700789938e-18
1.471389700789938e-18
1.471389700789938e-18
1.471389700789938e-18
1.471389700789938e-18
1.471389700789938e-18
1.471389700789938e-18
1.471389700789938e-18
1.471389700789938e-18
1.471389700789938e-18
1.471389700789938e-18
1.471389700789938e-18
1.471389700789938e-18
1.471389700789938e-18
1.471389700789938e-18
1.471389700789938e-18
1.471389700789938e-18
1.471389700789938e-18